 # Ni7432 Fe1743 Cr2439
 
       11614  atoms
           3  atom types
 
      0.00000000      50.00000000  xlo xhi
      0.00000000      50.00000000  ylo yhi
      0.00000000      50.00000000  zlo zhi
 
Masses
 
           1   58.69340000    # Ni
           2   55.84500000    # Fe
           3   51.99610000    # Cr
 
Atoms # atomic
 
         1    1       43.99675000      31.24320000      34.74665000
         2    1       42.31910000      33.06485000      34.85810000
         3    1       42.27895000      31.23865000      36.53395000
         4    1       42.21240000      31.39160000      33.03215000
         5    1       43.91645000      27.59075000      38.09840000
         6    1       42.23880000      29.41245000      38.20985000
         7    2       42.19865000      27.58620000      39.88575000
         8    2       43.95660000      29.41700000      36.42255000
         9    2       43.84990000      27.74370000      34.59660000
        10    3       42.17225000      29.56535000      34.70805000
        11    2       42.13210000      27.73915000      36.38390000
        12    1       43.89005000      29.56995000      32.92070000
        13    1       43.78335000      27.89665000      31.09475000
        14    1       42.10575000      29.71830000      31.20620000
        15    2       42.06560000      27.89210000      32.88210000
        16    2       41.99905000      28.04505000      29.38025000
        17    1       43.83610000      23.93835000      41.45020000
        18    1       42.15850000      25.76000000      41.56160000
        19    1       42.11835000      23.93375000      43.23750000
        20    3       43.87625000      25.76455000      39.77430000
        21    1       43.76960000      24.09125000      37.94835000
        22    2       42.09195000      25.91295000      38.05980000
        23    2       42.05180000      24.08670000      39.73570000
        24    2       43.80975000      25.91750000      36.27250000
        25    1       43.70305000      24.24420000      34.44655000
        26    2       42.02545000      26.06590000      34.55800000
        27    1       41.98530000      24.23965000      36.23385000
        28    1       43.74320000      26.07045000      32.77065000
        29    1       43.63650000      24.39715000      30.94470000
        30    1       41.95890000      26.21880000      31.05615000
        31    3       41.91875000      24.39260000      32.73205000
        32    1       43.67670000      26.22340000      29.26885000
        33    1       43.57000000      24.55010000      27.44290000
        34    1       41.89235000      26.37175000      27.55435000
        35    1       41.85220000      24.54555000      29.23020000
        36    1       41.78570000      24.69850000      25.72840000
        37    1       43.79595000      22.11210000      43.12605000
        38    3       43.68930000      20.43885000      41.30015000
        39    1       42.01165000      22.26050000      41.41155000
        40    1       41.97150000      20.43430000      43.08745000
        41    1       43.72945000      22.26505000      39.62425000
        42    1       43.62275000      20.59180000      37.79830000
        43    2       41.94515000      22.41345000      37.90975000
        44    1       41.90500000      20.58720000      39.58565000
        45    1       43.66290000      22.41800000      36.12245000
        46    1       43.55620000      20.74470000      34.29650000
        47    1       41.87860000      22.56640000      34.40795000
        48    1       41.83845000      20.74015000      36.08380000
        49    1       43.59635000      22.57095000      32.62060000
        50    3       43.48970000      20.89765000      30.79465000
        51    2       41.81205000      22.71930000      30.90610000
        52    1       41.77190000      20.89310000      32.58200000
        53    1       43.52985000      22.72390000      29.11880000
        54    1       43.42315000      21.05060000      27.29285000
        55    3       41.74555000      22.87225000      27.40430000
        56    1       41.70540000      21.04605000      29.08015000
        57    1       43.46330000      22.87680000      25.61695000
        58    1       43.35660000      21.20355000      23.79105000
        59    2       41.67900000      23.02520000      23.90245000
        60    1       41.63885000      21.19900000      25.57835000
        61    1       43.60900000      16.78640000      44.65190000
        62    1       41.93135000      18.60805000      44.76335000
        63    1       41.89120000      16.78185000      46.43925000
        64    1       43.64915000      18.61260000      42.97600000
        65    1       43.54245000      16.93935000      41.15010000
        66    3       41.86485000      18.76100000      41.26150000
        67    2       41.82465000      16.93480000      42.93740000
        68    2       43.58260000      18.76555000      39.47420000
        69    1       43.47590000      17.09230000      37.64825000
        70    1       41.79830000      18.91395000      37.75970000
        71    3       41.75815000      17.08770000      39.43560000
        72    1       43.51605000      18.91850000      35.97240000
        73    1       43.40940000      17.24520000      34.14645000
        74    1       41.73175000      19.06690000      34.25790000
        75    2       41.69160000      17.24065000      35.93375000
        76    2       43.44955000      19.07145000      32.47055000
        77    1       43.34285000      17.39815000      30.64460000
        78    1       41.66525000      19.21980000      30.75605000
        79    1       41.62510000      17.39360000      32.43195000
        80    1       43.38300000      19.22440000      28.96875000
        81    1       43.27630000      17.55110000      27.14280000
        82    1       41.59870000      19.37275000      27.25425000
        83    3       41.55855000      17.54655000      28.93010000
        84    3       43.31645000      19.37730000      25.46690000
        85    1       43.20980000      17.70405000      23.64100000
        86    3       41.53215000      19.52570000      23.75240000
        87    3       41.49200000      17.69950000      25.42830000
        88    1       41.85105000      14.95560000      48.11510000
        89    1       43.56885000      14.96020000      46.32780000
        90    1       43.46215000      13.28690000      44.50185000
        91    1       41.78450000      15.10855000      44.61330000
        92    1       41.74435000      13.28235000      46.28920000
        93    1       43.50230000      15.11310000      42.82595000
        94    1       43.39560000      13.43985000      41.00005000
        95    1       41.71800000      15.26150000      41.11145000
        96    1       41.67785000      13.43530000      42.78735000
        97    1       43.43575000      15.26605000      39.32415000
        98    1       43.32910000      13.59280000      37.49820000
        99    2       41.65145000      15.41445000      37.60965000
       100    2       41.61130000      13.58820000      39.28555000
       101    1       43.36925000      15.41900000      35.82235000
       102    3       43.26255000      13.74570000      33.99640000
       103    3       41.58495000      15.56740000      34.10785000
       104    1       41.54475000      13.74115000      35.78370000
       105    1       43.30270000      15.57195000      32.32050000
       106    3       43.19600000      13.89865000      30.49455000
       107    1       41.51840000      15.72030000      30.60600000
       108    1       41.47825000      13.89410000      32.28190000
       109    1       43.23615000      15.72490000      28.81870000
       110    3       41.45185000      15.87325000      27.10420000
       111    1       41.41170000      14.04705000      28.78005000
       112    1       43.16965000      15.87780000      25.31685000
       113    1       41.38535000      16.02620000      23.60235000
       114    1       41.63770000      11.60905000      44.46325000
       115    1       43.35545000      11.61360000      42.67590000
       116    1       43.24880000       9.94035000      40.85000000
       117    3       41.57115000      11.76200000      40.96140000
       118    3       41.53100000       9.93580000      42.63730000
       119    3       43.28895000      11.76655000      39.17410000
       120    1       43.18225000      10.09330000      37.34815000
       121    2       41.50460000      11.91495000      37.45960000
       122    1       41.46445000      10.08870000      39.13550000
       123    1       43.22240000      11.91950000      35.67230000
       124    1       43.11570000      10.24620000      33.84635000
       125    1       41.43810000      12.06790000      33.95780000
       126    3       41.39795000      10.24165000      35.63365000
       127    1       43.15585000      12.07245000      32.17045000
       128    3       41.37155000      12.22080000      30.45595000
       129    3       41.33140000      10.39460000      32.13185000
       130    1       41.42430000       8.26250000      40.81135000
       131    2       43.14210000       8.26705000      39.02405000
       132    1       41.35780000       8.41545000      37.30955000
       133    2       41.31765000       6.58920000      38.98545000
       134    1       41.29125000       8.56840000      33.80775000
       135    3       38.92370000      34.88195000      36.75685000
       136    1       40.56120000      31.23410000      38.32130000
       137    1       38.88355000      33.05575000      38.43270000
       138    2       38.84340000      31.22955000      40.10860000
       139    3       40.60135000      33.06030000      36.64540000
       140    1       40.49465000      31.38705000      34.81945000
       141    3       38.81705000      33.20870000      34.93090000
       142    2       38.77685000      31.38250000      36.60680000
       143    2       40.53480000      33.21325000      33.14360000
       144    1       40.42810000      31.54000000      31.31765000
       145    3       38.75050000      33.36165000      31.42910000
       146    1       38.71035000      31.53540000      33.10495000
       147    2       38.64380000      31.68835000      29.60315000
       148    1       40.48090000      27.58165000      41.67305000
       149    2       38.80325000      29.40330000      41.78450000
       150    2       38.76310000      27.57710000      43.46035000
       151    2       40.52105000      29.40785000      39.99715000
       152    2       40.41435000      27.73460000      38.17125000
       153    1       38.73670000      29.55625000      38.28265000
       154    1       38.69655000      27.73005000      39.95855000
       155    1       40.45450000      29.56080000      36.49535000
       156    1       40.34780000      27.88755000      34.66940000
       157    2       38.67020000      29.70920000      34.78085000
       158    2       38.63005000      27.88300000      36.45675000
       159    1       40.38795000      29.71375000      32.99355000
       160    1       40.28130000      28.04050000      31.16760000
       161    3       38.60365000      29.86215000      31.27905000
       162    1       38.56350000      28.03590000      32.95490000
       163    1       40.32145000      29.86670000      29.49170000
       164    1       40.21475000      28.19340000      27.66575000
       165    1       38.53710000      30.01510000      27.77720000
       166    1       38.49695000      28.18885000      29.45310000
       167    3       38.43045000      28.34180000      25.95125000
       168    2       40.44070000      25.75545000      43.34895000
       169    1       40.33405000      24.08215000      41.52300000
       170    1       38.65640000      25.90380000      41.63445000
       171    1       38.61625000      24.07760000      43.31030000
       172    1       40.37420000      25.90840000      39.84710000
       173    3       40.26750000      24.23510000      38.02120000
       174    1       38.58990000      26.05675000      38.13260000
       175    1       38.54975000      24.23055000      39.80850000
       176    1       40.30765000      26.06130000      36.34530000
       177    1       40.20100000      24.38805000      34.51935000
       178    1       38.52335000      26.20970000      34.63080000
       179    2       38.48320000      24.38350000      36.30670000
       180    1       40.24115000      26.21425000      32.84350000
       181    1       40.13445000      24.54100000      31.01755000
       182    1       38.45680000      26.36265000      31.12900000
       183    1       38.41665000      24.53640000      32.80485000
       184    1       40.17460000      26.36720000      29.34165000
       185    1       40.06790000      24.69390000      27.51570000
       186    1       38.39030000      26.51560000      27.62715000
       187    1       38.35015000      24.68935000      29.30305000
       188    3       40.10805000      26.52015000      25.83985000
       189    2       40.00140000      24.84685000      24.01390000
       190    1       38.28360000      24.84230000      25.80120000
       191    1       40.25375000      20.42970000      44.87475000
       192    1       38.57610000      22.25140000      44.98620000
       193    3       38.53595000      20.42515000      46.66210000
       194    3       40.29390000      22.25595000      43.19890000
       195    1       40.18720000      20.58265000      41.37295000
       196    1       38.50960000      22.40430000      41.48440000
       197    1       38.46945000      20.57810000      43.16025000
       198    1       40.22735000      22.40890000      39.69705000
       199    1       40.12065000      20.73560000      37.87115000
       200    1       38.44305000      22.55725000      37.98255000
       201    1       38.40290000      20.73105000      39.65845000
       202    2       40.16080000      22.56180000      36.19525000
       203    1       40.05415000      20.88855000      34.36930000
       204    1       38.37650000      22.71020000      34.48075000
       205    1       38.33635000      20.88400000      36.15665000
       206    1       40.09430000      22.71475000      32.69345000
       207    1       39.98760000      21.04150000      30.86750000
       208    1       38.31000000      22.86315000      30.97895000
       209    1       38.26985000      21.03690000      32.65480000
       210    1       40.02775000      22.86770000      29.19160000
       211    2       39.92105000      21.19440000      27.36565000
       212    1       38.24345000      23.01610000      27.47710000
       213    1       38.20330000      21.18985000      29.15300000
       214    1       39.96125000      23.02065000      25.68980000
       215    3       39.85455000      21.34735000      23.86385000
       216    1       38.13675000      21.34280000      25.65115000
       217    3       40.17345000      16.77730000      48.22655000
       218    3       38.49580000      18.59895000      48.33800000
       219    3       38.45565000      16.77270000       0.01385000
       220    1       40.21360000      18.60350000      46.55065000
       221    3       40.10690000      16.93020000      44.72470000
       222    1       38.42930000      18.75190000      44.83615000
       223    1       38.38910000      16.92565000      46.51205000
       224    1       40.14705000      18.75645000      43.04885000
       225    1       40.04035000      17.08315000      41.22290000
       226    1       38.36275000      18.90480000      41.33435000
       227    1       38.32260000      17.07860000      43.01020000
       228    1       40.08050000      18.90940000      39.54700000
       229    1       39.97385000      17.23610000      37.72110000
       230    1       38.29620000      19.05775000      37.83250000
       231    1       38.25605000      17.23155000      39.50840000
       232    1       40.01400000      19.06230000      36.04520000
       233    2       39.90730000      17.38905000      34.21925000
       234    1       38.22970000      19.21070000      34.33070000
       235    2       38.18955000      17.38450000      36.00660000
       236    1       39.94745000      19.21525000      32.54340000
       237    1       39.84075000      17.54200000      30.71745000
       238    3       38.16315000      19.36365000      30.82890000
       239    3       38.12300000      17.53740000      32.50475000
       240    3       39.88090000      19.36820000      29.04155000
       241    1       39.77425000      17.69490000      27.21560000
       242    1       38.09660000      19.51660000      27.32705000
       243    1       38.05645000      17.69035000      29.00295000
       244    1       39.81440000      19.52115000      25.53975000
       245    1       37.98995000      17.84330000      25.50110000
       246    3       38.41550000      14.94650000       1.68975000
       247    1       40.13330000      14.95105000      49.90245000
       248    1       40.02660000      13.27780000      48.07650000
       249    1       38.34895000      15.09945000      48.18795000
       250    2       38.30880000      13.27320000      49.86380000
       251    2       40.06675000      15.10400000      46.40060000
       252    3       39.96005000      13.43070000      44.57465000
       253    1       38.28245000      15.25240000      44.68610000
       254    1       38.24230000      13.42615000      46.36200000
       255    1       40.00020000      15.25695000      42.89880000
       256    1       39.89355000      13.58365000      41.07285000
       257    3       38.21590000      15.40530000      41.18430000
       258    3       38.17575000      13.57910000      42.86015000
       259    3       39.93370000      15.40990000      39.39695000
       260    1       39.82700000      13.73660000      37.57105000
       261    3       38.14940000      15.55825000      37.68245000
       262    1       38.10920000      13.73205000      39.35835000
       263    2       39.86715000      15.56280000      35.89515000
       264    2       39.76045000      13.88955000      34.06920000
       265    1       38.08285000      15.71120000      34.18065000
       266    3       38.04270000      13.88500000      35.85655000
       267    1       39.80060000      15.71575000      32.39335000
       268    1       39.69395000      14.04250000      30.56740000
       269    3       38.01630000      15.86415000      30.67885000
       270    1       37.97615000      14.03795000      32.35470000
       271    2       39.73410000      15.86870000      28.89150000
       272    3       39.62740000      14.19545000      27.06555000
       273    1       37.94980000      16.01710000      27.17700000
       274    1       37.90965000      14.19085000      28.85290000
       275    1       39.66755000      16.02165000      25.38970000
       276    1       37.84310000      14.34380000      25.35105000
       277    1       38.20215000      11.59995000      48.03790000
       278    2       39.91990000      11.60450000      46.25055000
       279    1       39.81325000       9.93120000      44.42460000
       280    1       38.13560000      11.75290000      44.53605000
       281    1       38.09545000       9.92665000      46.21195000
       282    2       39.85340000      11.75745000      42.74875000
       283    1       39.74670000      10.08415000      40.92280000
       284    1       38.06905000      11.90580000      41.03425000
       285    3       38.02890000      10.07960000      42.71010000
       286    1       39.78685000      11.91040000      39.24690000
       287    1       39.68015000      10.23710000      37.42100000
       288    1       38.00255000      12.05875000      37.53240000
       289    2       37.96240000      10.23255000      39.20830000
       290    1       39.72030000      12.06330000      35.74510000
       291    3       39.61365000      10.39005000      33.91915000
       292    1       37.93600000      12.21170000      34.03060000
       293    2       37.89585000      10.38550000      35.70650000
       294    1       39.65380000      12.21625000      32.24330000
       295    1       39.54710000      10.54300000      30.41735000
       296    1       37.86945000      12.36465000      30.52880000
       297    1       37.82930000      10.53845000      32.20465000
       298    1       39.58725000      12.36920000      28.74145000
       299    2       37.80295000      12.51760000      27.02695000
       300    1       37.76280000      10.69135000      28.70285000
       301    1       37.98875000       8.25340000      44.38600000
       302    3       39.70655000       8.25795000      42.59870000
       303    1       39.59985000       6.58465000      40.77275000
       304    1       37.92225000       8.40630000      40.88420000
       305    1       37.88210000       6.58010000      42.56005000
       306    1       39.64000000       8.41090000      39.09685000
       307    1       39.53335000       6.73760000      37.27095000
       308    2       37.85570000       8.55925000      37.38235000
       309    1       37.81555000       6.73305000      39.05825000
       310    1       39.57350000       8.56385000      35.59505000
       311    3       37.78915000       8.71220000      33.88055000
       312    1       37.74900000       6.88600000      35.55645000
       313    2       39.50695000       8.71675000      32.09325000
       314    1       37.72265000       8.86515000      30.37875000
       315    1       37.68250000       7.03895000      32.05460000
       316    2       37.77540000       4.90685000      40.73415000
       317    1       39.49315000       4.91140000      38.94680000
       318    2       37.70885000       5.05975000      37.23230000
       319    1       37.66870000       3.23355000      38.90820000
       320    2       37.20595000      34.87740000      38.54415000
       321    1       35.52830000      36.69905000      38.65560000
       322    1       35.48815000      34.87285000      40.33145000
       323    3       37.24610000      36.70365000      36.86825000
       324    1       37.13940000      35.03035000      35.04235000
       325    1       35.46180000      36.85200000      35.15375000
       326    2       35.42165000      35.02580000      36.82965000
       327    1       35.35510000      35.17875000      33.32785000
       328    1       37.12565000      31.22495000      41.89590000
       329    2       35.44800000      33.04665000      42.00735000
       330    1       35.40785000      31.22040000      43.68325000
       331    1       37.16580000      33.05120000      40.22005000
       332    1       37.05910000      31.37790000      38.39410000
       333    1       35.38150000      33.19960000      38.50555000
       334    1       35.34130000      31.37335000      40.18140000
       335    1       37.09925000      33.20415000      36.71820000
       336    2       36.99255000      31.53085000      34.89230000
       337    2       35.31495000      33.35250000      35.00370000
       338    1       35.27480000      31.52630000      36.67960000
       339    1       37.03270000      33.35710000      33.21640000
       340    1       36.92605000      31.68380000      31.39045000
       341    1       35.24840000      33.50545000      31.50190000
       342    1       35.20825000      31.67925000      33.17780000
       343    2       36.96620000      33.51000000      29.71460000
       344    2       36.85950000      31.83675000      27.88865000
       345    3       35.18190000      33.65840000      28.00010000
       346    1       35.14175000      31.83220000      29.67595000
       347    1       37.08550000      29.39875000      43.57180000
       348    1       36.97880000      27.72550000      41.74585000
       349    3       35.30115000      29.54715000      41.85730000
       350    1       35.26100000      27.72090000      43.53320000
       351    1       37.01895000      29.55170000      40.07000000
       352    1       36.91225000      27.87840000      38.24405000
       353    2       35.23465000      29.70010000      38.35550000
       354    3       35.19450000      27.87385000      40.03135000
       355    1       36.95240000      29.70465000      36.56815000
       356    1       36.84575000      28.03135000      34.74225000
       357    3       35.16810000      29.85300000      34.85365000
       358    1       35.12795000      28.02680000      36.52955000
       359    1       36.88590000      29.85760000      33.06635000
       360    1       36.77920000      28.18430000      31.24040000
       361    1       35.10160000      30.00595000      31.35185000
       362    1       35.06140000      28.17975000      33.02775000
       363    3       36.81935000      30.01050000      29.56455000
       364    1       36.71265000      28.33725000      27.73860000
       365    1       35.03505000      30.15890000      27.85005000
       366    1       34.99490000      28.33270000      29.52590000
       367    3       36.75280000      30.16345000      26.06270000
       368    3       36.89850000      24.07305000      45.09765000
       369    3       35.22085000      25.89470000      45.20910000
       370    1       35.18070000      24.06850000      46.88495000
       371    1       36.93865000      25.89925000      43.42175000
       372    1       36.83195000      24.22600000      41.59580000
       373    1       35.15435000      26.04765000      41.70725000
       374    2       35.11420000      24.22140000      43.38315000
       375    1       36.87210000      26.05220000      39.91995000
       376    2       36.76545000      24.37890000      38.09400000
       377    1       35.08780000      26.20060000      38.20545000
       378    1       35.04765000      24.37435000      39.88130000
       379    1       36.80560000      26.20515000      36.41810000
       380    1       36.69890000      24.53185000      34.59220000
       381    1       35.02125000      26.35350000      34.70360000
       382    1       34.98110000      24.52730000      36.37950000
       383    3       36.73905000      26.35810000      32.91630000
       384    1       36.63235000      24.68480000      31.09035000
       385    1       34.95475000      26.50645000      31.20180000
       386    1       34.91460000      24.68025000      32.87770000
       387    2       36.67250000      26.51100000      29.41450000
       388    1       36.56585000      24.83775000      27.58855000
       389    2       34.88820000      26.65940000      27.70000000
       390    3       34.84805000      24.83320000      29.37585000
       391    3       36.60600000      26.66395000      25.91265000
       392    1       36.81820000      20.42060000      48.44940000
       393    1       35.14055000      22.24225000      48.56085000
       394    1       35.10040000      20.41605000       0.23675000
       395    3       36.85835000      22.24680000      46.77355000
       396    1       36.75165000      20.57355000      44.94760000
       397    3       35.07405000      22.39520000      45.05905000
       398    3       35.03390000      20.56900000      46.73490000
       399    1       36.79180000      22.39975000      43.27170000
       400    1       36.68510000      20.72650000      41.44575000
       401    1       35.00750000      22.54815000      41.55720000
       402    1       34.96735000      20.72190000      43.23310000
       403    2       36.72525000      22.55270000      39.76990000
       404    1       36.61860000      20.87940000      37.94395000
       405    2       34.94095000      22.70110000      38.05540000
       406    1       34.90080000      20.87485000      39.73125000
       407    1       36.65875000      22.70565000      36.26805000
       408    1       36.55205000      21.03235000      34.44215000
       409    3       34.87445000      22.85400000      34.55355000
       410    3       34.83430000      21.02780000      36.22945000
       411    1       36.59220000      22.85860000      32.76625000
       412    1       36.48550000      21.18530000      30.94030000
       413    1       34.80790000      23.00695000      31.05175000
       414    2       34.76775000      21.18075000      32.72765000
       415    1       36.52570000      23.01150000      29.26445000
       416    3       36.41900000      21.33825000      27.43850000
       417    1       34.74135000      23.15990000      27.54995000
       418    2       34.70120000      21.33370000      29.22580000
       419    3       36.45915000      23.16445000      25.76260000
       420    1       36.73790000      16.76815000       1.80120000
       421    3       35.06025000      18.58980000       1.91260000
       422    3       35.02010000      16.76360000       3.58850000
       423    1       36.77805000      18.59440000       0.12530000
       424    2       36.67135000      16.92110000      48.29935000
       425    1       34.99375000      18.74275000      48.41080000
       426    3       34.95360000      16.91655000       0.08670000
       427    1       36.71150000      18.74730000      46.62350000
       428    1       36.60480000      17.07405000      44.79755000
       429    3       34.92720000      18.89570000      44.90900000