 # Ni740 Cr243 Fe173
 
        1156  atoms
           3  atom types
 
      0.00000000      50.00000000  xlo xhi
      0.00000000      50.00000000  ylo yhi
      0.00000000       5.00000000  zlo zhi
 
Masses
 
           1   58.69340000    # Ni
           2   51.99610000    # Cr
           3   55.84500000    # Fe
 
Atoms # atomic
 
         1    1       10.50035000       6.61810000       0.88220000
         2    1        8.79780000      11.00665000       2.43889500
         3    2        8.77155000       6.71855000       2.65601500
         4    1        7.92025000       8.91280000       3.43436500
         5    2        7.04270000       6.81895000       4.42983500
         6    3        9.64910000       8.81240000       1.66055000
         7    1        8.20725000      10.17925000       0.17793500
         8    1        7.32970000       8.08540000       1.17340500
         9    3        7.89395000       4.62465000       3.65148500
        10    1        6.45215000       5.99155000       2.16887500
        11    1        8.18095000       5.89110000       0.39506000
        12    1        5.86160000       5.16415000       4.90792000
        13    1        7.09530000      15.39520000       3.99558500
        14    1        7.06900000      11.10705000       4.21271000
        15    2        7.94655000      13.20090000       3.21724000
        16    1        7.35600000      12.37350000       0.95628000
        17    1        6.50475000      14.56780000       1.73462500
        18    3        5.62720000      12.47395000       2.73009500
        19    1        5.60090000       8.18580000       2.94722000
        20    1        4.74965000      10.38010000       3.72556500
        21    2        3.87210000       8.28625000       4.72103500
        22    1        6.47845000      10.27965000       1.95175000
        23    1        5.03665000      11.64655000       0.46914000
        24    3        4.15910000       9.55265000       1.46461000
        25    1        4.72335000       6.09195000       3.94269000
        26    1        3.28155000       7.45880000       2.46008000
        27    1        5.01035000       7.35840000       0.68626500
        28    1        2.69100000       6.63140000       0.19912500
        29    1        6.24405000      17.58945000       4.77393000
        30    2        5.65350000      16.76205000       2.51297500
        31    1        4.80225000      18.95635000       3.29132000
        32    1        3.92470000      16.86250000       4.28679000
        33    1        5.08925000      20.22280000       0.03489000
        34    1        4.21170000      18.12890000       1.03036000
        35    2        3.89840000      12.57435000       4.50391000
        36    1        4.77595000      14.66820000       3.50844500
        37    2        4.18540000      13.84080000       1.24748500
        38    1        3.33415000      16.03505000       2.02583000
        39    3        2.45660000      13.94120000       3.02130000
        40    2        5.06295000      15.93465000       0.25201500
        41    1        2.43030000       9.65310000       3.23842500
        42    3        1.57905000      11.84735000       4.01677000
        43    1        3.30785000      11.74695000       2.24295500
        44    1        2.71730000      10.91955000       4.98200000
        45    1        1.86600000      13.11380000       0.76034500
        46    1        0.98845000      11.01995000       1.75581500
        47    1        1.55275000       7.55925000       4.23389500
        48    1        0.11090000       8.92610000       2.75128500
        49    2        1.83970000       8.82570000       0.97747000
        50    1        3.95100000      21.15060000       4.06966500
        51    1        4.23800000      22.41705000       0.81323500
        52    1        2.50920000      22.51745000       2.58705000
        53    1        2.48290000      18.22935000       2.80417500
        54    2        1.63165000      20.42360000       3.58252000
        55    1        0.75405000      18.32975000       4.57799000
        56    3        3.36045000      20.32320000       1.80870500
        57    1        1.91860000      21.69005000       0.32609500
        58    1        1.04105000      19.59620000       1.32156500
        59    1        0.72775000      14.04165000       4.79511500
        60    1        1.60535000      16.13550000       3.79964500
        61    2        1.01475000      15.30810000       1.53869000
        62    1        0.16350000      17.50235000       2.31703500
        63    1       49.28595000      15.40850000       3.31250500
        64    1        1.89230000      17.40195000       0.54322000
        65    3       49.57295000      16.67495000       0.05608000
        66    1       49.25965000      11.12040000       3.52963000
        67    1       48.40840000      13.31465000       4.30797500
        68    1        0.13720000      13.21425000       2.53416000
        69    1       49.54665000      12.38680000       0.27320500
        70    1       48.69540000      14.58110000       1.05155000
        71    2       47.81785000      12.48725000       2.04702000
        72    2       46.94030000      10.39340000       3.04249000
        73    1       48.66910000      10.29295000       1.26867500
        74    1        0.78035000      22.61790000       4.36087000
        75    1       49.31225000      19.69665000       3.09538000
        76    1       48.46100000      21.89090000       3.87372500
        77    1        0.18980000      21.79050000       2.09991000
        78    1       47.87045000      21.06350000       1.61277000
        79    1       48.43470000      17.60275000       4.09085000
        80    1       47.84415000      16.77535000       1.82989500
        81    3       46.99290000      18.96965000       2.60824000
        82    1       46.11535000      16.87580000       3.60371000
        83    1       48.72170000      18.86920000       0.83442500
        84    1       46.40235000      18.14225000       0.34728500
        85    1       46.08905000      12.58765000       3.82083500
        86    1       45.23780000      14.78195000       4.59918000
        87    1       46.96660000      14.68150000       2.82536500
        88    2       46.37605000      13.85410000       0.56441000
        89    2       45.52480000      16.04840000       1.34275500
        90    1       44.64720000      13.95455000       2.33822500
        91    3       45.49850000      11.76025000       1.55988000
        92    1       44.05665000      13.12710000       0.07727000
        93    1        6.36080000       3.89400000       4.55088500
        94    3        2.09355000      45.32740000       3.78732000
        95    2       49.83495000      44.93370000       4.73014500
        96    2        3.60055000      46.99415000       4.83435500
        97    1        3.84955000      48.14075000       2.65066000
        98    1        3.09785000      49.41385000       4.64051500
        99    2        1.59090000      47.74710000       3.59348000
       100    1        5.60550000       0.95415000       1.51399500
       101    1        4.85385000       2.22725000       3.50385000
       102    3        3.34685000       0.56050000       2.45682000
       103    3        5.10285000       3.37390000       1.32016000
       104    1       48.32800000      43.26695000       3.68311000
       105    1        0.58660000      43.66065000       2.74029000
       106    2        0.83560000      44.80725000       0.55659500
       107    1        0.08395000      46.08035000       2.54645000
       108    1       48.57700000      44.41360000       1.49941500
       109    2        2.34255000      46.47400000       1.60362500
       110    2        1.83990000      48.89375000       1.40979000
       111    1        4.10215000       3.50035000       0.49370500
       112    1        3.59950000       5.92005000       0.29986500
       113    3       49.33230000      47.35345000       4.53630500
       114    1       47.07365000      46.95975000       0.47912500
       115    1        1.08825000       0.16680000       3.39964000
       116    1        0.33660000       1.43990000       0.38949500
       117    1       48.82960000      49.77315000       4.34246500
       118    3        2.59520000       1.83360000       4.44667500
       119    2        2.84420000       2.98020000       2.26298000
       120    2        2.09255000       4.25330000       4.25283500
       121    3        0.58560000       2.58655000       3.20580000
       122    1        4.35115000       4.64695000       3.31001000
       123    1        2.34155000       5.39995000       2.06914000
       124    3       46.06935000      42.87330000       4.62593500
       125    1       46.31835000      44.01990000       2.44224000
       126    1       45.56670000      45.29300000       4.43209500
       127    1       44.05975000      43.62625000       3.38506000
       128    1       47.82530000      45.68670000       3.48927000
       129    1       48.07435000      46.83330000       1.30558000
       130    1       47.32265000      48.10640000       3.29543000
       131    2       45.81570000      46.43965000       2.24840000
       132    1       49.58130000      48.50005000       2.35261000
       133    1       49.07865000       0.91980000       2.15877000
       134    1       47.57165000      49.25305000       1.11174000
       135    2        1.33725000       1.31345000       1.21595000
       136    1        0.83460000       3.73315000       1.02211000
       137    1       44.30875000      44.77290000       1.20137000
       138    2       46.57100000      49.37950000       0.28528500
       139    2       48.32695000       2.19290000       4.14862500
       140    1       46.06835000       1.79920000       0.09144500
       141    1       49.83390000       3.85965000       0.19565500
       142    2        0.08290000       5.00625000       3.01196500
       143    1       49.33125000       6.27935000       0.00181500
       144    1       47.82430000       4.61260000       3.95478500
       145    1        1.58990000       6.67300000       4.05899500
       146    1       49.58025000       7.42600000       2.81812500
       147    1       43.30805000      44.89935000       0.37491500
       148    2       43.55710000      46.04595000       3.19122000
       149    2       42.80540000      47.31905000       0.18107500
       150    1       41.29845000      45.65230000       4.13404500
       151    3       45.06405000      47.71275000       4.23825500
       152    2       45.31305000      48.85935000       2.05456000
       153    2       44.56135000       0.13245000       4.04441500
       154    2       43.05440000      48.46570000       2.99738500
       155    2       46.82000000       0.52610000       3.10159000
       156    1       47.06900000       1.67275000       0.91790000
       157    1       46.31735000       2.94585000       2.90775500
       158    2       44.81040000       1.27910000       1.86072000
       159    3       48.57595000       3.33950000       1.96493000
       160    1       48.07330000       5.75920000       1.77109000
       161    1       46.56635000       4.09245000       0.72406000
       162    2        0.33195000       6.15290000       0.82827000
       163    2       42.05010000      44.37920000       2.14419000
       164    1       41.54745000      46.79895000       1.95035000
       165    2       40.04050000      45.13220000       0.90332000
       166    1       43.80610000      47.19260000       1.00753000
       167    1       43.30340000      49.61230000       0.81369000
       168    1       45.56565000       4.21895000       4.89760500
       169    1       47.32165000       7.03230000       3.76094500
       170    2       45.06300000       6.63865000       4.70377000
       171    1       48.82860000       8.69905000       4.80798000
       172    1       46.81900000       9.45205000       3.56710500
       173    1       40.79580000      48.07200000       3.94020500
       174    3       42.30275000      49.73880000       4.98723500
       175    1       42.55175000       0.88540000       2.80354500
       176    1       41.80010000       2.15850000       4.79339500
       177    1       40.29315000       0.49175000       3.74636500
       178    1       44.05870000       2.55215000       3.85057500
       179    3       44.30770000       3.69880000       1.66688000
       180    1       43.55605000       4.97190000       3.65673500
       181    2       42.04910000       3.30515000       2.60970500
       182    1       45.81470000       5.36555000       2.71391500
       183    1       46.06370000       6.51220000       0.53022000
       184    1       45.31200000       7.78525000       2.52007500
       185    1       43.80505000       6.11850000       1.47304000
       186    3       47.57065000       8.17895000       1.57725000
       187    1       39.28885000      46.40525000       2.89317500
       188    3       39.53785000      47.55190000       0.70948000
       189    1       41.04480000      49.21865000       1.75651000
       190    1       40.54215000       1.63835000       1.56267000
       191    1       42.80075000       2.03205000       0.61985000
       192    1       44.56035000       9.05835000       4.50993000
       193    1       42.30170000       8.66470000       0.45275000
       194    1       44.05770000      11.47810000       4.31609000
       195    2       39.79045000       2.91145000       3.55252500
       196    1       41.29745000       4.57820000       4.59956000
       197    1       41.54645000       5.72485000       2.41586500
       198    1       40.79475000       6.99795000       4.40572000
       199    2       39.28780000       5.33120000       3.35868500
       200    1       43.05340000       7.39160000       3.46289500
       201    1       43.30240000       8.53825000       1.27920500
       202    1       42.55075000       9.81135000       3.26905500
       203    1       41.04375000       8.14455000       2.22202500
       204    1       44.80935000      10.20500000       2.32623500
       205    1       42.79975000      10.95795000       1.08536500
       206    1       40.03945000       4.05810000       1.36883000
       207    1       39.53680000       6.47780000       1.17499500
       208    2       41.79905000      11.08440000       0.25891000
       209    1       40.29210000       9.41765000       4.21188000
       210    2       40.54110000      10.56430000       2.02818500
       211    1       39.78945000      11.83740000       4.01804000
       212    1       42.04805000      12.23105000       3.07522000
       213    2        4.87170000      36.90630000       3.53713500
       214    1        4.07150000      38.55395000       1.86675500
       215    1        3.56395000      40.15550000       3.68962000
       216    1        3.27130000      40.20165000       0.19637000
       217    3        2.76375000      41.80315000       2.01924000
       218    3        2.25620000      43.40465000       3.84210500
       219    1        1.96355000      43.45080000       0.34885500
       220    1        8.96060000      31.08895000       1.35854000
       221    1       10.72670000      31.72375000       2.97816000
       222    1       10.21920000      33.32525000       4.80102500
       223    1        8.45305000      32.69045000       3.18140500
       224    1        7.65290000      34.33810000       1.51102500
       225    1        9.92655000      33.37140000       1.30777500
       226    3        9.41900000      34.97290000       3.13064500
       227    1        7.14535000      35.93960000       3.33389000
       228    1        6.34515000      37.58730000       1.66350500
       229    1        8.61880000      36.62060000       1.46026000
       230    1        8.11125000      38.22210000       3.28312500
       231    1        6.85270000      35.98575000       4.84064000
       232    1        5.83760000      39.18880000       3.48637500
       233    3        5.03740000      40.83645000       1.81599000
       234    1        7.31105000      39.86975000       1.61274500
       235    1        6.80350000      41.47125000       3.43561000
       236    1        5.54495000      39.23495000       4.99312500
       237    1        6.51085000      41.51740000       4.94236000
       238    1        4.52985000      42.43795000       3.63885500
       239    1        3.72965000      44.08565000       1.96847500
       240    1        6.00330000      43.11895000       1.76523000
       241    3        4.23720000      42.48410000       0.14561000
       242    1        5.20310000      44.76660000       0.09484500
       243    2       12.49280000      32.35855000       4.59778000
       244    1       12.20020000      32.40470000       1.10453000
       245    1       13.96630000      33.03955000       2.72415000
       246    1       11.18510000      35.60775000       4.75026000
       247    1       13.45875000      34.64105000       4.54701500
       248    1       11.69265000      34.00625000       2.92739500
       249    2       10.89245000      35.65390000       1.25701500
       250    2       13.16610000      34.68720000       1.05376500
       251    2       12.65855000      36.28870000       2.87663000
       252    1       12.15100000      37.89020000       4.69950000
       253    1       10.38490000      37.25540000       3.07988000
       254    1        9.58470000      38.90305000       1.40949500
       255    2       11.85835000      37.93635000       1.20625000
       256    2       11.35080000      39.53790000       3.02911500
       257    1        9.07715000      40.50460000       3.23236500
       258    1        8.27695000      42.15225000       1.56198000
       259    2       10.55060000      41.18555000       1.35873500
       260    1       15.43975000      33.72050000       0.85052000
       261    3       14.42465000      36.92355000       4.49625000
       262    1       14.93220000      35.32200000       2.67338500
       263    1       14.13200000      36.96970000       1.00300500
       264    1       16.40565000      36.00300000       0.79975500
       265    1       15.89810000      37.60450000       2.62262000
       266    1       13.11690000      40.17270000       4.64873500
       267    1       15.39055000      39.20600000       4.44549000
       268    2       13.62445000      38.57120000       2.82587000
       269    3       12.82425000      40.21885000       1.15548500
       270    1       15.09790000      39.25215000       0.95224000
       271    1       17.37155000      38.28545000       0.74899000
       272    1       43.67800000      28.90405000       3.10204000
       273    2       43.26865000      29.00105000       4.62158500
       274    2       41.50830000      27.72580000       3.32440500
       275    1       39.63700000      28.27515000       1.79417000
       276    1       41.09895000      27.82280000       4.84395500
       277    2       40.80055000      26.09520000       1.59655500
       278    2       44.84160000      26.72405000       2.90442500
       279    2       42.67190000      25.54580000       3.12679500
       280    1       42.97025000      27.27345000       1.37419000
       281    1       44.43220000      26.82105000       4.42397000
       282    1       42.26250000      25.64280000       4.64634000
       283    1       44.13385000      25.09345000       1.17657500
       284    2       46.00515000      24.54410000       2.70681000
       285    1       46.30355000      26.27170000       0.95420500
       286    1       45.59580000      24.64110000       4.22635500
       287    1       47.46710000      24.09170000       0.75659000
       288    1       40.50220000      24.36760000       3.34916000
       289    1       38.63085000      24.91695000       1.81892500
       290    2       40.09280000      24.46455000       4.86870500
       291    2       37.92315000      23.28635000       0.09107500
       292    2       39.79445000      22.73695000       1.62131000
       293    2       43.83545000      23.36585000       2.92918000
       294    1       41.66575000      22.18760000       3.15154500
       295    1       41.96415000      23.91520000       1.39894000
       296    1       43.42610000      23.46285000       4.44872500
       297    3       41.25640000      22.28460000       4.67109000
       298    2       43.12770000      21.73525000       1.20132500
       299    3       47.16875000      22.36410000       2.50919500
       300    1       44.99905000      21.18585000       2.73156500
       301    3       45.29740000      22.91345000       0.97896000
       302    1       46.75935000      22.46110000       4.02874000
       303    2       44.58965000      21.28285000       4.25111000
       304    3       46.46100000      20.73350000       0.78134500
       305    1       39.49610000      21.00935000       3.37391500
       306    2       37.62475000      21.55870000       1.84367500
       307    3       39.08670000      21.10635000       4.89346000
       308    1       36.91700000      19.92810000       0.11582500
       309    2       38.78835000      19.37875000       1.64606000
       310    1       42.82935000      20.00760000       2.95393000
       311    3       40.65965000      18.82935000       3.17630000
       312    1       40.95805000      20.55700000       1.42369500
       313    1       42.41995000      20.10460000       4.47347500
       314    3       40.25030000      18.92635000       4.69584500
       315    2       42.12160000      18.37700000       1.22608000
       316    1       46.16260000      19.00590000       2.53395000
       317    1       43.99295000      17.82765000       2.75631500
       318    1       44.29130000      19.55525000       1.00371000
       319    1       45.75325000      19.10285000       4.05349500
       320    1       43.58355000      17.92465000       4.27586000
       321    1       36.61865000      18.20050000       1.86843000
       322    2       38.08060000      17.74810000       4.91821000
       323    1       35.91090000      16.56990000       0.14058000
       324    1       37.78220000      16.02050000       1.67081500
       325    1       41.82325000      16.64940000       2.97868500
       326    2       39.65355000      15.47115000       3.20105000
       327    1       39.95190000      17.19875000       1.44844500
       328    1       41.41385000      16.74640000       4.49823000
       329    1       39.24415000      15.56815000       4.72059500
       330    3       41.11550000      15.01880000       1.25083000
       331    3       42.98680000      14.46940000       2.78107000
       332    3       43.28520000      16.19700000       1.02846500
       333    1       42.57745000      14.56640000       4.30061500
       334    1       35.61250000      14.84225000       1.89318000
       335    3       37.07445000      14.38990000       4.94296500
       336    1       35.20315000      14.93925000       3.41272500
       337    1       40.81710000      13.29115000       3.00343500
       338    1       38.94580000      13.84055000       1.47320000
       339    1       40.40775000      13.38815000       4.52298000
       340    3       38.23805000      12.20990000       4.74535000
       341    2       42.27905000      12.83880000       1.05322000
       342    1       38.20675000      11.99615000       4.90047500
       343    1       38.59110000       9.97650000       2.06080500
       344    3       38.05930000       9.56355000       4.44658500
       345    3       38.44365000       7.54390000       1.60691500
       346    3       37.91185000       7.13095000       3.99269500
       347    1       38.29620000       5.11130000       1.15302500
       348    1       37.76440000       4.69835000       3.53880500
       349    1       38.14875000       2.67870000       0.69913000
       350    1       39.13370000       3.10640000       4.85640000
       351    1       38.98620000       0.67380000       4.40251000
       352    1       37.61695000       2.26575000       3.08491500
       353    1       37.46950000      49.83315000       2.63102500
       354    1       36.93770000      49.42025000       0.01680500
       355    3       38.83875000      48.24120000       3.94861500
       356    1       38.69130000      45.80860000       3.49472500
       357    2       37.32205000      47.40060000       2.17713000
       358    1       36.79025000      46.98765000       4.56291500
       359    1       39.22315000      46.22155000       1.10894500
       360    1       37.17460000      44.96800000       1.72324000
       361    3       36.64280000      44.55505000       4.10902000
       362    1       37.22185000      11.56845000       0.74321000
       363    1       35.32075000      12.74745000       1.81139500
       364    2       34.78895000      12.33455000       4.19718000
       365    1       36.69005000      11.15550000       3.12899000
       366    1       36.54260000       8.72290000       2.67510000
       367    1       35.17330000      10.31485000       1.35750500
       368    1       34.64150000       9.90195000       3.74328500
       369    1       35.02585000       7.88230000       0.90361500
       370    3       36.01075000       8.31000000       0.06088000
       371    1       35.86330000       5.87740000       4.60699000
       372    1       34.49405000       7.46935000       3.28939500
       373    1       36.39515000       6.29030000       2.22121000
       374    1       36.24770000       3.85775000       1.76732000
       375    2       34.87840000       5.44970000       0.44972500
       376    1       34.34660000       5.03675000       2.83550500
       377    3       33.81480000       4.62385000       0.22128500
       378    1       35.71585000       3.44480000       4.15310000
       379    1       35.56840000       1.01220000       3.69921000
       380    1       34.19915000       2.60415000       2.38161500
       381    1       33.66735000       2.19125000       4.76739500
       382    2       36.10025000       1.42515000       1.31343000
       383    2       35.95280000      48.99255000       0.85954000
       384    2       34.05170000       0.17155000       1.92772500
       385    1       33.51990000      49.75865000       4.31350500
       386    1       35.42095000      48.57960000       3.24532000
       387    2       35.27350000      46.14700000       2.79143000
       388    1       33.90425000      47.73895000       1.47383500
       389    2       33.37245000      47.32605000       3.85961500
       390    2       31.90295000      13.08585000       1.10810000
       391    2       32.88785000      13.51360000       0.26536500
       392    1       32.74040000      11.08100000       4.81147500
       393    1       33.27220000      11.49390000       2.42569500
       394    2       33.12475000       9.06130000       1.97180000
       395    3       31.75550000      10.65325000       0.65421000
       396    1       31.22370000      10.24035000       3.03999000
       397    1       32.59295000       8.64840000       4.35758500
       398    2       32.44550000       6.21580000       3.90369500
       399    1       31.07625000       7.80775000       2.58610000
       400    2       30.54440000       7.39485000       4.97188000
       401    1       32.97730000       6.62870000       1.51791000
       402    2       32.82985000       4.19610000       1.06402000
       403    2       30.92880000       5.37515000       2.13221000
       404    1       30.39695000       4.96225000       4.51799000
       405    1       32.29805000       3.78320000       3.44980000
       406    1       32.15060000       1.35060000       2.99591000
       407    1       30.78135000       2.94255000       1.67831500
       408    1       30.24950000       2.52965000       4.06410000
       409    1       32.68240000       1.76350000       0.61013000
       410    1       30.63390000       0.50995000       1.22442500
       411    2       31.61880000       0.93770000       0.38169000
       412    1       31.47135000      48.50510000       4.92780000
       413    1       30.10205000       0.09705000       3.61020500
       414    1       32.00315000      48.91800000       2.54202000
       415    1       43.07425000      43.19845000       3.53202500
       416    1       41.24570000      42.41020000       0.00863500
       417    3       43.30380000      41.05245000       4.75155000
       418    2       40.70960000      44.55725000       1.32917000
       419    1       38.88105000      43.76900000       2.80578000
       420    1       40.93910000      42.41125000       2.54869500
       421    3       38.57445000      43.77010000       0.34584000
       422    1       47.19040000      40.48295000       3.01786000
       423    1       45.36185000      39.69470000       4.49447000
       424    1       45.13230000      41.84070000       3.27494000
       425    3       44.82575000      41.84175000       0.81500500
       426    3       42.99720000      41.05350000       2.29161500
       427    2       45.05530000      39.69575000       2.03453000
       428    3       42.76765000      43.19950000       1.07209000
       429    1       47.11335000      38.33800000       1.77744500