LAMMPS data file via write_data, version 15 Apr 2020, timestep = 0

21318 atoms
3 atom types

6.9987167143955645e+01 1.2001463285604436e+02 xlo xhi
6.9985667143955638e+01 1.2001463285604436e+02 ylo yhi
-6.0583570000000010e-02 1.0005747467000000e+02 zlo zhi

Masses

1 58.69 #Ni
2 52 #Cr
3 55.85 #Fe

Atoms # atomic

1 1 1.1589600000000000e+02 1.1758600000000000e+02 9.9875500000000002e+01 0 0 0
2 2 1.1662400000000000e+02 1.1989900000000000e+02 9.9301000000000002e+01 0 0 0
3 1 1.1405400000000000e+02 1.1909000000000000e+02 9.8938400000000001e+01 0 0 0
4 1 1.1171299999999999e+02 1.1824299999999999e+02 9.8702100000000002e+01 0 0 0
5 1 1.0838600000000000e+02 1.1935299999999999e+02 9.9688900000000004e+01 0 0 0
6 3 1.0588800000000001e+02 1.1859999999999999e+02 9.9392300000000006e+01 0 0 0
7 1 1.0353500000000000e+02 1.1787900000000000e+02 9.9026300000000006e+01 0 0 0
8 1 1.0111700000000000e+02 1.1706100000000001e+02 9.8810299999999998e+01 0 0 0
9 2 9.7969800000000006e+01 1.1835500000000000e+02 9.9771900000000002e+01 0 0 0
10 1 9.5479900000000001e+01 1.1743200000000000e+02 9.9551299999999998e+01 0 0 0
11 3 9.6080399999999997e+01 1.1979200000000000e+02 9.8766099999999994e+01 0 0 0
12 1 8.9617000000000004e+01 1.1908199999999999e+02 9.9635900000000007e+01 0 0 0
13 1 8.7222999999999999e+01 1.1831100000000001e+02 9.9411799999999999e+01 0 0 0
14 2 8.4828400000000002e+01 1.1745900000000000e+02 9.9148600000000002e+01 0 0 0
15 1 8.1136099999999999e+01 1.1994600000000000e+02 9.9460300000000004e+01 0 0 0
16 1 7.8835599999999999e+01 1.1914400000000001e+02 9.9296700000000001e+01 0 0 0
17 1 7.6527500000000003e+01 1.1835800000000000e+02 9.9052800000000005e+01 0 0 0
18 2 7.4126700000000000e+01 1.1758100000000000e+02 9.8764300000000006e+01 0 0 0
19 1 7.0607200000000006e+01 1.1992800000000000e+02 9.9599699999999999e+01 0 0 0
20 1 1.1862800000000000e+02 1.1406500000000000e+02 9.9959699999999998e+01 0 0 0
21 1 1.1912400000000000e+02 1.1637000000000000e+02 9.9162300000000002e+01 0 0 0
22 2 1.1350000000000000e+02 1.1676700000000000e+02 9.9870099999999994e+01 0 0 0
23 2 1.1618300000000001e+02 1.1320200000000000e+02 9.9743099999999998e+01 0 0 0
24 1 1.1679600000000001e+02 1.1556300000000000e+02 9.8887100000000004e+01 0 0 0
25 1 1.1439700000000001e+02 1.1468000000000001e+02 9.8677099999999996e+01 0 0 0
26 1 1.1113800000000001e+02 1.1601500000000000e+02 9.9543099999999995e+01 0 0 0
27 1 1.0859800000000000e+02 1.1505300000000000e+02 9.9326899999999995e+01 0 0 0
28 1 1.0619000000000000e+02 1.1424700000000000e+02 9.8948400000000007e+01 0 0 0
29 1 1.0301800000000000e+02 1.1554600000000001e+02 9.9935100000000006e+01 0 0 0
30 1 1.0381100000000001e+02 1.1338500000000001e+02 9.8760000000000005e+01 0 0 0
31 2 1.0046599999999999e+02 1.1475800000000000e+02 9.9699799999999996e+01 0 0 0
32 2 9.8117699999999999e+01 1.1391300000000000e+02 9.9403400000000005e+01 0 0 0
33 3 9.8686700000000002e+01 1.1619799999999999e+02 9.8611199999999997e+01 0 0 0
34 2 9.5706800000000001e+01 1.1315700000000000e+02 9.9016800000000003e+01 0 0 0
35 1 9.3062700000000007e+01 1.1674800000000000e+02 9.9271900000000002e+01 0 0 0
36 1 9.0135400000000004e+01 1.1352900000000000e+02 9.9816500000000005e+01 0 0 0
37 1 9.0720100000000002e+01 1.1589600000000000e+02 9.9049800000000005e+01 0 0 0
38 3 8.8340400000000002e+01 1.1508300000000000e+02 9.8797700000000006e+01 0 0 0
39 1 8.2375799999999998e+01 1.1659300000000000e+02 9.8942499999999995e+01 0 0 0
40 1 8.4115399999999994e+01 1.1520200000000000e+02 9.9937899999999999e+01 0 0 0
41 1 8.1805700000000002e+01 1.1424700000000000e+02 9.9617199999999997e+01 0 0 0
42 3 7.9386600000000001e+01 1.1339800000000000e+02 9.9325500000000005e+01 0 0 0
43 2 8.0106200000000001e+01 1.1576100000000000e+02 9.8615099999999998e+01 0 0 0
44 3 7.5895200000000003e+01 1.1602700000000000e+02 9.9748000000000005e+01 0 0 0
45 1 7.3564499999999995e+01 1.1515800000000000e+02 9.9353800000000007e+01 0 0 0
46 3 1.1879400000000000e+02 1.0956699999999999e+02 9.9603300000000004e+01 0 0 0
47 1 1.1944199999999999e+02 1.1188400000000000e+02 9.8742000000000004e+01 0 0 0
48 3 1.1374600000000000e+02 1.1236700000000000e+02 9.9370400000000004e+01 0 0 0
49 2 1.1127900000000000e+02 1.1158700000000000e+02 9.9170299999999997e+01 0 0 0
50 1 1.0569300000000000e+02 1.1195600000000000e+02 9.9856600000000000e+01 0 0 0
51 2 1.0885800000000000e+02 1.1071800000000000e+02 9.9056500000000000e+01 0 0 0
52 2 1.0647600000000000e+02 1.0991900000000000e+02 9.8711299999999994e+01 0 0 0
53 2 1.0319799999999999e+02 1.1119900000000000e+02 9.9688500000000005e+01 0 0 0
54 1 1.0077100000000000e+02 1.1036700000000000e+02 9.9267300000000006e+01 0 0 0
55 2 9.8355900000000005e+01 1.0951600000000001e+02 9.9093599999999995e+01 0 0 0
56 1 9.4946200000000005e+01 1.1077400000000000e+02 9.9900000000000006e+01 0 0 0
57 3 9.3262699999999995e+01 1.1231900000000000e+02 9.8863699999999994e+01 0 0 0
58 2 9.2723299999999995e+01 1.0993800000000000e+02 9.9721199999999996e+01 0 0 0
59 3 9.0899500000000003e+01 1.1137900000000000e+02 9.8672200000000004e+01 0 0 0
60 1 8.7739999999999995e+01 1.1260800000000000e+02 9.9544300000000007e+01 0 0 0
61 2 8.5336399999999998e+01 1.1181100000000001e+02 9.9312500000000000e+01 0 0 0
62 1 8.2985799999999998e+01 1.1100300000000000e+02 9.9087199999999996e+01 0 0 0
63 1 8.0579499999999996e+01 1.1015600000000001e+02 9.8753600000000006e+01 0 0 0
64 2 7.7037800000000004e+01 1.1255000000000000e+02 9.8882300000000001e+01 0 0 0
65 2 7.6252600000000001e+01 1.1046200000000000e+02 9.9847099999999998e+01 0 0 0
66 1 7.3721800000000002e+01 1.0994600000000000e+02 9.9513999999999996e+01 0 0 0
67 1 7.3070800000000006e+01 1.1284300000000000e+02 9.9838499999999996e+01 0 0 0
68 1 7.1175700000000006e+01 1.0950600000000000e+02 9.8687799999999996e+01 0 0 0
69 1 1.1910500000000000e+02 1.0524400000000000e+02 9.9220100000000002e+01 0 0 0
70 3 1.1642000000000000e+02 1.0881900000000000e+02 9.9338399999999993e+01 0 0 0
71 1 1.1324900000000000e+02 1.0581900000000000e+02 9.9762500000000003e+01 0 0 0
72 1 1.1406999999999999e+02 1.0805400000000000e+02 9.9108500000000006e+01 0 0 0
73 1 1.1156300000000000e+02 1.0729300000000001e+02 9.8765100000000004e+01 0 0 0
74 3 1.0913500000000001e+02 1.0640400000000000e+02 9.8511399999999995e+01 0 0 0
75 1 1.0827100000000000e+02 1.0839900000000000e+02 9.9701300000000003e+01 0 0 0
76 1 1.0574700000000000e+02 1.0762900000000000e+02 9.9561599999999999e+01 0 0 0
77 1 1.0330700000000000e+02 1.0682700000000000e+02 9.9132700000000000e+01 0 0 0
78 1 9.7825699999999998e+01 1.0720000000000000e+02 9.9805899999999994e+01 0 0 0
79 1 1.0088400000000000e+02 1.0606200000000000e+02 9.8823200000000000e+01 0 0 0
80 1 9.5394999999999996e+01 1.0646100000000000e+02 9.9551000000000002e+01 0 0 0
81 3 9.5929800000000000e+01 1.0878900000000000e+02 9.8722200000000001e+01 0 0 0
82 2 9.3567200000000000e+01 1.0786000000000000e+02 9.8400700000000001e+01 0 0 0
83 1 9.0351699999999994e+01 1.0919499999999999e+02 9.9457800000000006e+01 0 0 0
84 2 9.3000699999999995e+01 1.0549100000000000e+02 9.9225700000000003e+01 0 0 0
85 1 8.7161799999999999e+01 1.0589300000000000e+02 9.9815899999999999e+01 0 0 0
86 3 8.7841499999999996e+01 1.0822799999999999e+02 9.9091899999999995e+01 0 0 0
87 2 8.5334299999999999e+01 1.0740200000000000e+02 9.8784899999999993e+01 0 0 0
88 1 8.2340800000000002e+01 1.0864900000000000e+02 9.9848200000000006e+01 0 0 0
89 3 8.4817700000000002e+01 1.0512100000000000e+02 9.9570599999999999e+01 0 0 0
90 1 7.7868300000000005e+01 1.0672199999999999e+02 9.9875000000000000e+01 0 0 0
91 1 8.0017899999999997e+01 1.0784999999999999e+02 9.9097600000000000e+01 0 0 0
92 2 7.9828699999999998e+01 1.0554600000000001e+02 9.8908199999999994e+01 0 0 0
93 1 7.5284899999999993e+01 1.0567100000000001e+02 9.9623000000000005e+01 0 0 0
94 1 7.4176400000000001e+01 1.0775900000000000e+02 9.9179100000000005e+01 0 0 0
95 3 7.1978999999999999e+01 1.0700400000000000e+02 9.8766400000000004e+01 0 0 0
96 1 1.1600400000000000e+02 1.0228000000000000e+02 9.9790899999999993e+01 0 0 0
97 1 1.1360400000000000e+02 1.0142800000000000e+02 9.9607399999999998e+01 0 0 0
98 2 1.1663500000000001e+02 1.0461600000000000e+02 9.8945099999999996e+01 0 0 0
99 1 1.1423500000000000e+02 1.0370699999999999e+02 9.8642300000000006e+01 0 0 0
100 1 1.1084900000000000e+02 1.0497199999999999e+02 9.9518000000000001e+01 0 0 0
101 1 1.0853700000000001e+02 1.0408400000000000e+02 9.9290199999999999e+01 0 0 0
102 1 1.0611400000000000e+02 1.0325900000000000e+02 9.9132999999999996e+01 0 0 0
103 1 1.0273099999999999e+02 1.0456699999999999e+02 9.9975700000000003e+01 0 0 0
104 1 1.0374800000000000e+02 1.0257500000000000e+02 9.8781599999999997e+01 0 0 0
105 2 9.8515799999999999e+01 1.0511000000000000e+02 9.8524699999999996e+01 0 0 0
106 3 1.0031300000000000e+02 1.0372300000000000e+02 9.9688800000000001e+01 0 0 0
107 2 9.8051599999999993e+01 1.0280500000000001e+02 9.9377099999999999e+01 0 0 0
108 3 9.5548599999999993e+01 1.0206000000000000e+02 9.9025300000000001e+01 0 0 0
109 1 9.0531400000000005e+01 1.0470900000000000e+02 9.8799499999999995e+01 0 0 0
110 2 9.2312799999999996e+01 1.0323099999999999e+02 9.9939300000000003e+01 0 0 0
111 1 8.9979399999999998e+01 1.0246599999999999e+02 9.9617300000000000e+01 0 0 0
112 2 8.7549099999999996e+01 1.0164400000000001e+02 9.9375699999999995e+01 0 0 0
113 3 8.8108300000000000e+01 1.0395399999999999e+02 9.8561800000000005e+01 0 0 0
114 1 8.5697400000000002e+01 1.0300600000000000e+02 9.8225600000000000e+01 0 0 0
115 3 8.2279300000000006e+01 1.0432400000000000e+02 9.9580299999999994e+01 0 0 0
116 1 8.0308999999999997e+01 1.0298300000000000e+02 9.9162400000000005e+01 0 0 0
117 1 7.8050500000000000e+01 1.0240600000000001e+02 9.8667500000000004e+01 0 0 0
118 1 7.6087599999999995e+01 1.0347199999999999e+02 9.9928600000000003e+01 0 0 0
119 1 7.3744000000000000e+01 1.0255300000000000e+02 9.9826899999999995e+01 0 0 0
120 1 7.3096599999999995e+01 1.0483000000000000e+02 9.9304500000000004e+01 0 0 0
121 1 7.1459500000000006e+01 1.0162000000000000e+02 9.9449299999999994e+01 0 0 0
122 2 7.0801000000000002e+01 1.0406300000000000e+02 9.8915400000000005e+01 0 0 0
123 1 1.1933799999999999e+02 1.0090500000000000e+02 9.8896799999999999e+01 0 0 0
124 1 1.1867200000000000e+02 9.8613200000000006e+01 9.9583500000000001e+01 0 0 0
125 2 1.1690100000000000e+02 1.0005900000000000e+02 9.8560699999999997e+01 0 0 0
126 1 1.1612000000000000e+02 9.7899699999999996e+01 9.9326800000000006e+01 0 0 0
127 2 1.1047000000000000e+02 9.8302999999999997e+01 9.9864500000000007e+01 0 0 0
128 1 1.1120699999999999e+02 1.0063100000000000e+02 9.9177300000000002e+01 0 0 0
129 2 1.0553400000000001e+02 1.0099800000000000e+02 9.9963700000000003e+01 0 0 0
130 2 1.0795000000000000e+02 9.7372299999999996e+01 9.9526899999999998e+01 0 0 0
131 1 1.0880400000000000e+02 9.9714100000000002e+01 9.8823200000000000e+01 0 0 0
132 2 1.0631000000000000e+02 9.8961600000000004e+01 9.8536600000000007e+01 0 0 0
133 1 1.0298800000000000e+02 1.0023200000000000e+02 9.9620199999999997e+01 0 0 0
134 2 1.0067500000000000e+02 9.9395499999999998e+01 9.9392799999999994e+01 0 0 0
135 1 9.8284999999999997e+01 9.8494699999999995e+01 9.9108000000000004e+01 0 0 0
136 1 9.5015199999999993e+01 9.9773600000000002e+01 9.9980500000000006e+01 0 0 0
137 1 9.5897999999999996e+01 9.7726399999999998e+01 9.8839900000000000e+01 0 0 0
138 1 9.3200400000000002e+01 1.0123099999999999e+02 9.8794799999999995e+01 0 0 0
139 1 9.2551199999999994e+01 9.8865399999999994e+01 9.9568299999999994e+01 0 0 0
140 1 9.0294499999999999e+01 9.7972499999999997e+01 9.9356499999999997e+01 0 0 0
141 2 9.0863000000000000e+01 1.0028000000000000e+02 9.8455200000000005e+01 0 0 0
142 1 8.5224999999999994e+01 1.0073099999999999e+02 9.9076200000000000e+01 0 0 0
143 2 8.1916100000000000e+01 9.8931899999999999e+01 9.9980900000000005e+01 0 0 0
144 1 7.9714399999999998e+01 9.7949500000000000e+01 9.9728700000000003e+01 0 0 0
145 2 7.9200800000000001e+01 1.0036000000000000e+02 9.9376300000000001e+01 0 0 0
146 2 7.6543999999999997e+01 9.9221400000000003e+01 9.8841399999999993e+01 0 0 0
147 1 7.4209000000000003e+01 9.8375200000000007e+01 9.8498699999999999e+01 0 0 0
148 1 7.2267099999999999e+01 9.9412499999999994e+01 9.9890500000000003e+01 0 0 0
149 1 1.1903000000000000e+02 9.4240600000000001e+01 9.9300899999999999e+01 0 0 0
150 1 1.1365400000000000e+02 9.7024699999999996e+01 9.9038399999999996e+01 0 0 0
151 1 1.1622000000000000e+02 9.3520700000000005e+01 9.8578999999999994e+01 0 0 0
152 1 1.1300200000000000e+02 9.4804400000000001e+01 9.9745800000000003e+01 0 0 0
153 2 1.1074600000000000e+02 9.3907399999999996e+01 9.9448599999999999e+01 0 0 0
154 2 1.1130700000000000e+02 9.6256299999999996e+01 9.8745400000000004e+01 0 0 0
155 3 1.0554100000000000e+02 9.6716300000000004e+01 9.9398700000000005e+01 0 0 0
156 2 1.0258799999999999e+02 9.3393500000000003e+01 9.9896900000000002e+01 0 0 0
157 1 1.0317900000000000e+02 9.5833699999999993e+01 9.9110900000000001e+01 0 0 0
158 2 9.7668499999999995e+01 9.6178399999999996e+01 9.9828100000000006e+01 0 0 0
159 3 1.0076000000000001e+02 9.4969600000000000e+01 9.8955699999999993e+01 0 0 0
160 1 9.5115499999999997e+01 9.5379099999999994e+01 9.9499099999999999e+01 0 0 0
161 3 9.2706299999999999e+01 9.4450500000000005e+01 9.9161400000000000e+01 0 0 0
162 3 9.0258300000000006e+01 9.3621799999999993e+01 9.9038200000000003e+01 0 0 0
163 1 8.8038899999999998e+01 9.7214500000000001e+01 9.9109499999999997e+01 0 0 0
164 2 8.7281599999999997e+01 9.5073700000000002e+01 9.9821899999999999e+01 0 0 0
165 2 8.4905000000000001e+01 9.5724100000000007e+01 9.9336699999999993e+01 0 0 0
166 1 8.2540700000000001e+01 9.4611099999999993e+01 9.8731200000000001e+01 0 0 0
167 1 7.8069900000000004e+01 9.4583200000000005e+01 9.9866500000000002e+01 0 0 0
168 2 8.0201700000000002e+01 9.3658799999999999e+01 9.8597099999999998e+01 0 0 0
169 2 7.7286900000000003e+01 9.6982799999999997e+01 9.9364400000000003e+01 0 0 0
170 1 7.5790199999999999e+01 9.3796700000000001e+01 9.9655900000000003e+01 0 0 0
171 1 7.5025599999999997e+01 9.6213999999999999e+01 9.9082499999999996e+01 0 0 0
172 1 7.2711100000000002e+01 9.5167500000000004e+01 9.8724699999999999e+01 0 0 0
173 3 7.0262200000000007e+01 9.4333100000000002e+01 9.8457700000000003e+01 0 0 0
174 1 1.1803200000000000e+02 9.2048699999999997e+01 9.9692599999999999e+01 0 0 0
175 3 1.1562200000000000e+02 9.1182500000000005e+01 9.9410799999999995e+01 0 0 0
176 1 1.1330900000000000e+02 9.0369500000000002e+01 9.9208900000000000e+01 0 0 0
177 2 1.1088400000000000e+02 8.9425600000000003e+01 9.9150899999999993e+01 0 0 0
178 3 1.0830100000000000e+02 9.3095699999999994e+01 9.9229699999999994e+01 0 0 0
179 2 1.0584399999999999e+02 9.2138199999999998e+01 9.9070800000000006e+01 0 0 0
180 2 1.0512900000000000e+02 8.9849299999999999e+01 9.9882599999999996e+01 0 0 0
181 1 1.0352000000000000e+02 9.1300799999999995e+01 9.8816000000000003e+01 0 0 0
182 1 1.0016400000000000e+02 9.2527500000000003e+01 9.9611300000000000e+01 0 0 0
183 2 9.7706699999999998e+01 9.1861699999999999e+01 9.9270099999999999e+01 0 0 0
184 1 9.5310800000000000e+01 9.1023399999999995e+01 9.9026600000000002e+01 0 0 0
185 3 8.9511899999999997e+01 9.1393600000000006e+01 9.9884200000000007e+01 0 0 0
186 2 9.3015900000000002e+01 9.0134100000000004e+01 9.8822500000000005e+01 0 0 0
187 2 9.0618700000000004e+01 8.9491200000000006e+01 9.8598699999999994e+01 0 0 0
188 1 8.5759200000000007e+01 9.3159700000000001e+01 9.9660700000000006e+01 0 0 0
189 3 8.6937399999999997e+01 9.0774400000000000e+01 9.9564400000000006e+01 0 0 0
190 2 8.4570999999999998e+01 8.9655299999999997e+01 9.9713399999999993e+01 0 0 0
191 2 8.3316699999999997e+01 9.2253299999999996e+01 9.9454999999999998e+01 0 0 0
192 3 8.1025000000000006e+01 9.1169399999999996e+01 9.9057800000000000e+01 0 0 0
193 1 7.8786199999999994e+01 9.0340900000000005e+01 9.8745099999999994e+01 0 0 0
194 2 7.4407300000000006e+01 9.0602999999999994e+01 9.9777900000000002e+01 0 0 0
195 3 7.6393900000000002e+01 8.9520300000000006e+01 9.8425700000000006e+01 0 0 0
196 1 7.3473299999999995e+01 9.2917599999999993e+01 9.9317999999999998e+01 0 0 0
197 3 7.2115200000000002e+01 8.9702600000000004e+01 9.9521799999999999e+01 0 0 0
198 2 7.1119200000000006e+01 9.2072500000000005e+01 9.8922100000000000e+01 0 0 0
199 1 1.1809300000000000e+02 8.7539199999999994e+01 9.9243799999999993e+01 0 0 0
200 1 1.1578300000000000e+02 8.6747200000000007e+01 9.8911400000000000e+01 0 0 0
201 1 1.1353800000000000e+02 8.5992599999999996e+01 9.8774699999999996e+01 0 0 0
202 2 1.1021899999999999e+02 8.7216099999999997e+01 9.9747200000000007e+01 0 0 0
203 2 1.0780100000000000e+02 8.6407399999999996e+01 9.9545800000000000e+01 0 0 0
204 1 1.0848699999999999e+02 8.8716800000000006e+01 9.8738200000000006e+01 0 0 0
205 2 1.0286799999999999e+02 8.9045599999999993e+01 9.9404799999999994e+01 0 0 0
206 1 1.0037000000000000e+02 8.8165499999999994e+01 9.9178399999999996e+01 0 0 0
207 3 9.7962400000000002e+01 8.7457999999999998e+01 9.9020300000000006e+01 0 0 0
208 2 9.4723699999999994e+01 8.8612499999999997e+01 9.9938500000000005e+01 0 0 0
209 2 9.5426000000000002e+01 8.6613100000000003e+01 9.8797100000000000e+01 0 0 0
210 2 9.2245000000000005e+01 8.7940899999999999e+01 9.9596900000000005e+01 0 0 0
211 3 8.9867500000000007e+01 8.7180400000000006e+01 9.9373400000000004e+01 0 0 0
212 3 9.2996799999999993e+01 8.5820200000000000e+01 9.8581400000000002e+01 0 0 0
213 1 8.6637500000000003e+01 8.5814599999999999e+01 9.8664400000000001e+01 0 0 0
214 2 8.6153499999999994e+01 8.8415999999999997e+01 9.8485299999999995e+01 0 0 0
215 2 8.1911699999999996e+01 8.8698200000000000e+01 9.9471599999999995e+01 0 0 0
216 3 8.0362499999999997e+01 8.5595299999999995e+01 9.9745699999999999e+01 0 0 0
217 3 7.9573599999999999e+01 8.7963899999999995e+01 9.9227699999999999e+01 0 0 0
218 2 7.7030000000000001e+01 8.7153499999999994e+01 9.9091399999999993e+01 0 0 0
219 2 7.4798800000000000e+01 8.6357900000000001e+01 9.8609600000000000e+01 0 0 0
220 1 7.0439899999999994e+01 8.6623599999999996e+01 9.9732200000000006e+01 0 0 0
221 1 1.1753400000000001e+02 8.5285399999999996e+01 9.9995800000000003e+01 0 0 0
222 2 1.1845500000000000e+02 8.3120500000000007e+01 9.8751099999999994e+01 0 0 0
223 2 1.1511600000000000e+02 8.4412300000000002e+01 9.9844999999999999e+01 0 0 0
224 1 1.1606100000000001e+02 8.2482900000000001e+01 9.8574600000000004e+01 0 0 0
225 3 1.1280100000000000e+02 8.3605500000000006e+01 9.9658199999999994e+01 0 0 0
226 3 1.1033799999999999e+02 8.2805199999999999e+01 9.9314599999999999e+01 0 0 0
227 3 1.1110800000000000e+02 8.5161699999999996e+01 9.8561899999999994e+01 0 0 0
228 1 1.0542500000000000e+02 8.5435299999999998e+01 9.9288700000000006e+01 0 0 0
229 1 1.0795399999999999e+02 8.1881699999999995e+01 9.9212400000000002e+01 0 0 0
230 3 1.0243500000000000e+02 8.2436599999999999e+01 9.9981399999999994e+01 0 0 0
231 3 1.0300300000000000e+02 8.4645899999999997e+01 9.9142700000000005e+01 0 0 0
232 2 9.9987499999999997e+01 8.1672300000000007e+01 9.9798900000000003e+01 0 0 0
233 2 1.0065100000000000e+02 8.3825800000000001e+01 9.8983699999999999e+01 0 0 0
234 1 9.8189999999999998e+01 8.3073499999999996e+01 9.8878399999999999e+01 0 0 0
235 1 9.7261200000000002e+01 8.5214500000000001e+01 9.9833900000000000e+01 0 0 0
236 3 9.4827299999999994e+01 8.4452900000000000e+01 9.9657200000000003e+01 0 0 0
237 3 9.5786600000000007e+01 8.2225399999999993e+01 9.8595299999999995e+01 0 0 0
238 3 9.3157799999999995e+01 8.1489199999999997e+01 9.8574500000000000e+01 0 0 0
239 1 9.2401200000000003e+01 8.3565700000000007e+01 9.9622399999999999e+01 0 0 0
240 2 8.7529499999999999e+01 8.2246300000000005e+01 9.9413700000000006e+01 0 0 0
241 1 8.8337400000000002e+01 8.4643799999999999e+01 9.9589600000000004e+01 0 0 0
242 1 8.5691699999999997e+01 8.3552400000000006e+01 9.9023200000000003e+01 0 0 0
243 1 8.4365099999999998e+01 8.5373999999999995e+01 9.8569999999999993e+01 0 0 0
244 1 8.2180599999999998e+01 8.4374600000000001e+01 9.8476600000000005e+01 0 0 0
245 2 7.8057599999999994e+01 8.4865099999999998e+01 9.9532600000000002e+01 0 0 0
246 1 7.5599000000000004e+01 8.4126700000000000e+01 9.9053399999999996e+01 0 0 0
247 1 7.3257199999999997e+01 8.3321799999999996e+01 9.8894000000000005e+01 0 0 0
248 2 7.1035899999999998e+01 8.2110799999999998e+01 9.8769300000000001e+01 0 0 0
249 1 1.1790100000000000e+02 8.0836299999999994e+01 9.9626199999999997e+01 0 0 0
250 3 1.1558900000000000e+02 8.0108800000000002e+01 9.9357100000000003e+01 0 0 0
251 3 1.1313200000000001e+02 7.9381200000000007e+01 9.9235900000000001e+01 0 0 0
252 1 1.1084200000000000e+02 7.8589299999999994e+01 9.8819699999999997e+01 0 0 0
253 1 1.0554200000000000e+02 8.1018100000000004e+01 9.9069100000000006e+01 0 0 0
254 1 1.0860200000000000e+02 7.7752399999999994e+01 9.8846999999999994e+01 0 0 0
255 2 1.0309500000000000e+02 8.0138800000000003e+01 9.8939499999999995e+01 0 0 0
256 1 9.7510400000000004e+01 8.0843400000000003e+01 9.9746700000000004e+01 0 0 0
257 3 1.0072000000000000e+02 7.9229200000000006e+01 9.8851299999999995e+01 0 0 0
258 1 9.8294200000000004e+01 7.8241200000000006e+01 9.8837999999999994e+01 0 0 0
259 1 9.5024500000000003e+01 8.0034099999999995e+01 9.9627799999999993e+01 0 0 0
260 3 9.2569699999999997e+01 7.9413600000000002e+01 9.9594999999999999e+01 0 0 0
261 2 8.9962699999999998e+01 7.8531000000000006e+01 9.9278400000000005e+01 0 0 0
262 3 8.7532300000000006e+01 7.7741100000000003e+01 9.9199399999999997e+01 0 0 0
263 3 8.2267499999999998e+01 8.1574700000000007e+01 9.8757300000000001e+01 0 0 0
264 1 8.4762400000000000e+01 8.1421199999999999e+01 9.9188299999999998e+01 0 0 0
265 1 8.1632800000000003e+01 7.9090999999999994e+01 9.9522099999999995e+01 0 0 0
266 2 7.9855500000000006e+01 8.0621799999999993e+01 9.8703299999999999e+01 0 0 0
267 1 7.9400700000000001e+01 7.7798500000000004e+01 9.9461399999999998e+01 0 0 0
268 1 7.6702699999999993e+01 8.1089600000000004e+01 9.9831100000000006e+01 0 0 0
269 1 7.4387799999999999e+01 8.0184600000000003e+01 9.9491900000000001e+01 0 0 0
270 3 7.1952399999999997e+01 7.9407600000000002e+01 9.9338999999999999e+01 0 0 0
271 3 1.1748999999999999e+02 7.4265600000000006e+01 9.9879400000000004e+01 0 0 0
272 3 1.1805600000000000e+02 7.6605199999999996e+01 9.9129499999999993e+01 0 0 0
273 1 1.1583900000000000e+02 7.5804000000000002e+01 9.8947599999999994e+01 0 0 0
274 2 1.1338300000000000e+02 7.5092200000000005e+01 9.8647499999999994e+01 0 0 0
275 3 1.1034000000000000e+02 7.6291899999999998e+01 9.9844800000000006e+01 0 0 0
276 1 1.1100100000000000e+02 7.4349500000000006e+01 9.8479200000000006e+01 0 0 0
277 2 1.0803000000000000e+02 7.5434899999999999e+01 9.9667599999999993e+01 0 0 0
278 1 1.0584300000000000e+02 7.4721500000000006e+01 9.9640699999999995e+01 0 0 0
279 1 1.0625500000000000e+02 7.6917800000000000e+01 9.8615399999999994e+01 0 0 0
280 1 1.0249100000000000e+02 7.7672200000000004e+01 9.9799999999999997e+01 0 0 0
281 1 1.0346100000000000e+02 7.3849699999999999e+01 9.9473799999999997e+01 0 0 0
282 1 1.0399800000000000e+02 7.6298400000000001e+01 9.8519900000000007e+01 0 0 0
283 2 1.0175400000000000e+02 7.5319199999999995e+01 9.8343299999999999e+01 0 0 0
284 1 1.0006000000000000e+02 7.6656499999999994e+01 9.9937899999999999e+01 0 0 0
285 3 9.7814400000000006e+01 7.5668300000000002e+01 9.9832300000000004e+01 0 0 0
286 2 9.9519499999999994e+01 7.4538200000000003e+01 9.8496399999999994e+01 0 0 0
287 1 9.5914900000000003e+01 7.7075999999999993e+01 9.8769499999999994e+01 0 0 0
288 1 9.5362399999999994e+01 7.4662000000000006e+01 9.9859099999999998e+01 0 0 0
289 1 9.3524100000000004e+01 7.6181200000000004e+01 9.8796199999999999e+01 0 0 0
290 1 9.2992900000000006e+01 7.3896000000000001e+01 9.9575100000000006e+01 0 0 0
291 3 9.1103300000000004e+01 7.5388000000000005e+01 9.8575800000000001e+01 0 0 0
292 2 8.6945099999999996e+01 7.5463800000000006e+01 9.9822900000000004e+01 0 0 0
293 2 8.8671800000000005e+01 7.4539299999999997e+01 9.8354399999999998e+01 0 0 0
294 3 8.5197900000000004e+01 7.7013999999999996e+01 9.8924199999999999e+01 0 0 0
295 2 8.4555099999999996e+01 7.4668700000000001e+01 9.9614099999999993e+01 0 0 0
296 1 8.2068600000000004e+01 7.3856600000000000e+01 9.9283600000000007e+01 0 0 0
297 3 8.2756600000000006e+01 7.6299199999999999e+01 9.8629300000000001e+01 0 0 0
298 2 7.6634900000000002e+01 7.4078900000000004e+01 9.9892399999999995e+01 0 0 0
299 2 7.7128100000000003e+01 7.6658299999999997e+01 9.9265600000000006e+01 0 0 0
300 3 7.4848799999999997e+01 7.5655900000000003e+01 9.8962000000000003e+01 0 0 0
301 1 7.1671300000000002e+01 7.6850399999999993e+01 9.9810500000000005e+01 0 0 0
302 1 7.2550899999999999e+01 7.4836699999999993e+01 9.8540199999999999e+01 0 0 0
303 1 1.1865700000000000e+02 7.0974100000000007e+01 9.9141000000000005e+01 0 0 0
304 3 1.1499700000000000e+02 7.3501499999999993e+01 9.9681200000000004e+01 0 0 0
305 1 1.1625100000000000e+02 7.0182400000000001e+01 9.8960200000000000e+01 0 0 0
306 3 1.1270800000000000e+02 7.2655699999999996e+01 9.9395300000000006e+01 0 0 0
307 1 1.1027800000000001e+02 7.1920400000000001e+01 9.9276700000000005e+01 0 0 0
308 1 1.0778400000000001e+02 7.1019400000000005e+01 9.9181899999999999e+01 0 0 0
309 1 1.0530300000000000e+02 7.0362799999999993e+01 9.8980300000000000e+01 0 0 0
310 1 1.0127200000000001e+02 7.3041100000000000e+01 9.9448300000000003e+01 0 0 0
311 1 9.9059600000000003e+01 7.2179299999999998e+01 9.9199200000000005e+01 0 0 0
312 2 9.6759900000000002e+01 7.1342600000000004e+01 9.9066800000000001e+01 0 0 0
313 2 9.4322500000000005e+01 7.0453699999999998e+01 9.8838999999999999e+01 0 0 0
314 3 9.0611500000000007e+01 7.3120999999999995e+01 9.9400300000000001e+01 0 0 0
315 1 8.8331500000000005e+01 7.2189700000000002e+01 9.9266099999999994e+01 0 0 0
316 1 8.5907300000000006e+01 7.1254700000000000e+01 9.8906999999999996e+01 0 0 0
317 1 8.1636799999999994e+01 7.1364300000000000e+01 9.9992500000000007e+01 0 0 0
318 1 8.3444999999999993e+01 7.0453999999999994e+01 9.8477400000000003e+01 0 0 0
319 1 7.9188999999999993e+01 7.0758200000000002e+01 9.9635400000000004e+01 0 0 0
320 1 7.9864099999999993e+01 7.3109200000000001e+01 9.8986099999999993e+01 0 0 0
321 1 7.7606300000000005e+01 7.2205699999999993e+01 9.8708100000000002e+01 0 0 0
322 2 7.4322699999999998e+01 7.3267200000000003e+01 9.9632000000000005e+01 0 0 0
323 3 7.1809899999999999e+01 7.2494900000000001e+01 9.9244699999999995e+01 0 0 0
324 1 1.1980500000000001e+02 1.1868600000000001e+02 9.8338600000000000e+01 0 0 0
325 1 1.1742500000000000e+02 1.1790300000000001e+02 9.8043800000000005e+01 0 0 0
326 2 1.1892800000000000e+02 1.1806000000000000e+02 9.5984399999999994e+01 0 0 0
327 2 1.1720000000000000e+02 1.1944199999999999e+02 9.5000200000000007e+01 0 0 0
328 1 1.1569100000000000e+02 1.1922000000000000e+02 9.7100099999999998e+01 0 0 0
329 1 1.1317900000000000e+02 1.1844300000000000e+02 9.6792400000000001e+01 0 0 0
330 2 1.1655900000000000e+02 1.1720099999999999e+02 9.5819599999999994e+01 0 0 0
331 1 1.1458600000000000e+02 1.1867600000000000e+02 9.4823499999999996e+01 0 0 0
332 1 1.1504600000000001e+02 1.1694400000000000e+02 9.7758300000000006e+01 0 0 0
333 1 1.0934399999999999e+02 1.1747000000000000e+02 9.8476799999999997e+01 0 0 0
334 2 1.0991200000000001e+02 1.1973399999999999e+02 9.7721000000000004e+01 0 0 0
335 1 1.1076900000000001e+02 1.1762500000000000e+02 9.6380499999999998e+01 0 0 0
336 1 1.1139400000000001e+02 1.1988200000000001e+02 9.5634299999999996e+01 0 0 0
337 1 1.0915400000000000e+02 1.1920900000000000e+02 9.5395399999999995e+01 0 0 0
338 3 1.0751500000000000e+02 1.1891400000000000e+02 9.7314200000000000e+01 0 0 0
339 1 1.0663300000000000e+02 1.1827700000000000e+02 9.5062399999999997e+01 0 0 0
340 3 1.0506399999999999e+02 1.1808199999999999e+02 9.7083200000000005e+01 0 0 0
341 1 1.0176200000000000e+02 1.1931500000000000e+02 9.7934399999999997e+01 0 0 0
342 3 1.0270500000000000e+02 1.1721500000000000e+02 9.6792199999999994e+01 0 0 0
343 1 1.0334900000000000e+02 1.1955100000000000e+02 9.6057500000000005e+01 0 0 0
344 1 1.0423300000000000e+02 1.1750200000000000e+02 9.4687100000000001e+01 0 0 0
345 2 9.9394000000000005e+01 1.1853700000000001e+02 9.7734999999999999e+01 0 0 0
346 1 1.0087500000000000e+02 1.1866700000000000e+02 9.5750000000000000e+01 0 0 0
347 1 9.8472399999999993e+01 1.1797100000000000e+02 9.5597999999999999e+01 0 0 0
348 1 9.3676699999999997e+01 1.1897799999999999e+02 9.8539100000000005e+01 0 0 0
349 1 9.6997100000000003e+01 1.1773200000000000e+02 9.7511600000000001e+01 0 0 0
350 2 9.5183700000000002e+01 1.1916200000000001e+02 9.6393299999999996e+01 0 0 0
351 3 9.6131500000000003e+01 1.1714100000000001e+02 9.5264399999999995e+01 0 0 0
352 1 9.1301599999999993e+01 1.1806800000000000e+02 9.8236300000000000e+01 0 0 0
353 2 8.9613100000000003e+01 1.1958300000000000e+02 9.7106999999999999e+01 0 0 0
354 1 9.2860100000000003e+01 1.1836600000000000e+02 9.6218999999999994e+01 0 0 0
355 1 9.0478099999999998e+01 1.1748200000000000e+02 9.5983000000000004e+01 0 0 0
356 1 9.1110299999999995e+01 1.1972799999999999e+02 9.5077900000000000e+01 0 0 0
357 2 8.5243899999999996e+01 1.1978700000000001e+02 9.8500200000000007e+01 0 0 0
358 1 8.8929400000000001e+01 1.1733199999999999e+02 9.7981899999999996e+01 0 0 0
359 1 8.7237200000000001e+01 1.1887400000000000e+02 9.7130799999999994e+01 0 0 0
360 1 8.8703199999999995e+01 1.1898099999999999e+02 9.5007000000000005e+01 0 0 0
361 3 8.6350499999999997e+01 1.1815800000000000e+02 9.4765299999999996e+01 0 0 0
362 2 8.3003500000000003e+01 1.1894799999999999e+02 9.8143000000000001e+01 0 0 0
363 1 8.4824900000000000e+01 1.1800100000000000e+02 9.6779600000000002e+01 0 0 0